<?xml version="1.0" encoding="UTF-8"?>

<!-- generated on Wednesday 10 June 2020 12:48:23 PM IST by Eclipse SUMO GUI Version v1_5_0+1075-3895fb2aa6
<configuration xmlns:xsi="http://www.w3.org/2001/XMLSchema-instance" xsi:noNamespaceSchemaLocation="http://sumo.dlr.de/xsd/sumoConfiguration.xsd">

    <input>
        <net-file value="map/gwalior1.net.xml"/>
        <route-files value="map/high_traffic.rou.xml"/>
        <additional-files value="map/gwalior.add.xml"/>
    </input>

    <output>
        <tripinfo-output value="tripinfo.xml"/>
    </output>

    <time>
        <begin value="0"/>
    </time>

    <report>
        <verbose value="true"/>
        <no-step-log value="true"/>
    </report>

    <traci_server>
        <remote-port value="8873"/>
    </traci_server>

    <gui_only>
        <quit-on-end value="true"/>
        <start value="true"/>
    </gui_only>

</configuration>
-->

<tripinfos xmlns:xsi="http://www.w3.org/2001/XMLSchema-instance" xsi:noNamespaceSchemaLocation="http://sumo.dlr.de/xsd/tripinfo_file.xsd">
    <tripinfo id="60" depart="12.00" departLane="-384145608#1_0" departPos="5.10" departSpeed="0.00" departDelay="0.00" arrival="39.00" arrivalLane="-99621717#3_0" arrivalPos="168.50" arrivalSpeed="26.68" duration="27.00" routeLength="545.35" waitingTime="0.00" waitingCount="0" stopTime="0.00" timeLoss="6.91" rerouteNo="0" devices="tripinfo_60" vType="DEFAULT_VEHTYPE" speedFactor="1.00" vaporized=""/>
    <tripinfo id="36" depart="7.00" departLane="521511808#0_0" departPos="5.10" departSpeed="0.00" departDelay="0.00" arrival="52.00" arrivalLane="-521511818#1_0" arrivalPos="108.21" arrivalSpeed="20.04" duration="45.00" routeLength="619.38" waitingTime="0.00" waitingCount="0" stopTime="0.00" timeLoss="18.89" rerouteNo="0" devices="tripinfo_36" vType="DEFAULT_VEHTYPE" speedFactor="1.17" vaporized=""/>
    <tripinfo id="10" depart="2.00" departLane="-521511788_0" departPos="5.10" departSpeed="0.00" departDelay="0.00" arrival="76.00" arrivalLane="521511808#0_0" arrivalPos="194.63" arrivalSpeed="19.66" duration="74.00" routeLength="883.29" waitingTime="0.00" waitingCount="0" stopTime="0.00" timeLoss="23.12" rerouteNo="0" devices="tripinfo_10" vType="DEFAULT_VEHTYPE" speedFactor="0.94" vaporized=""/>
    <tripinfo id="109" depart="21.00" departLane="-547746539#4_0" departPos="5.10" departSpeed="0.00" departDelay="0.00" arrival="85.00" arrivalLane="547746539#4_0" arrivalPos="305.38" arrivalSpeed="14.41" duration="64.00" routeLength="621.58" waitingTime="0.00" waitingCount="0" stopTime="0.00" timeLoss="19.78" rerouteNo="0" devices="tripinfo_109" vType="car" speedFactor="1.07" vaporized=""/>
    <tripinfo id="132" depart="26.00" departLane="-508777085#2_0" departPos="5.10" departSpeed="0.00" departDelay="0.00" arrival="91.00" arrivalLane="521707479#0_0" arrivalPos="81.03" arrivalSpeed="14.65" duration="65.00" routeLength="1086.56" waitingTime="0.00" waitingCount="0" stopTime="0.00" timeLoss="20.60" rerouteNo="0" devices="tripinfo_132" vType="DEFAULT_VEHTYPE" speedFactor="1.10" vaporized=""/>
    <tripinfo id="52" depart="10.00" departLane="547665360#1_0" departPos="5.10" departSpeed="0.00" departDelay="0.00" arrival="95.00" arrivalLane="547667474_0" arrivalPos="362.97" arrivalSpeed="13.25" duration="85.00" routeLength="862.44" waitingTime="2.00" waitingCount="1" stopTime="0.00" timeLoss="23.91" rerouteNo="0" devices="tripinfo_52" vType="DEFAULT_VEHTYPE" speedFactor="1.00" vaporized=""/>
    <tripinfo id="158" depart="31.00" departLane="521511811#2_0" departPos="5.10" departSpeed="0.00" departDelay="0.00" arrival="101.00" arrivalLane="521511821#12_1" arrivalPos="140.51" arrivalSpeed="31.02" duration="70.00" routeLength="986.66" waitingTime="0.00" waitingCount="0" stopTime="0.00" timeLoss="19.08" rerouteNo="0" devices="tripinfo_158" vType="DEFAULT_VEHTYPE" speedFactor="1.14" vaporized=""/>
    <tripinfo id="77" depart="15.00" departLane="-171185159#13_0" departPos="7.10" departSpeed="0.00" departDelay="0.00" arrival="104.00" arrivalLane="547667474_0" arrivalPos="362.97" arrivalSpeed="13.85" duration="89.00" routeLength="1228.50" waitingTime="0.00" waitingCount="0" stopTime="0.00" timeLoss="24.01" rerouteNo="0" devices="tripinfo_77" vType="ambu" speedFactor="1.02" vaporized=""/>
    <tripinfo id="205" depart="42.00" departLane="521511756#2_0" departPos="5.10" departSpeed="0.00" departDelay="1.00" arrival="104.00" arrivalLane="508777085#1_1" arrivalPos="80.45" arrivalSpeed="17.64" duration="62.00" routeLength="611.68" waitingTime="0.00" waitingCount="0" stopTime="0.00" timeLoss="33.59" rerouteNo="0" devices="tripinfo_205" vType="DEFAULT_VEHTYPE" speedFactor="0.94" vaporized=""/>
    <tripinfo id="295" depart="59.00" departLane="521511808#2_0" departPos="5.10" departSpeed="0.00" departDelay="0.00" arrival="105.00" arrivalLane="521511813#0_0" arrivalPos="109.40" arrivalSpeed="14.86" duration="46.00" routeLength="512.85" waitingTime="0.00" waitingCount="0" stopTime="0.00" timeLoss="16.31" rerouteNo="0" devices="tripinfo_295" vType="DEFAULT_VEHTYPE" speedFactor="1.13" vaporized=""/>
    <tripinfo id="189" depart="37.00" departLane="R5_0" departPos="5.10" departSpeed="0.00" departDelay="0.00" arrival="108.00" arrivalLane="R5_0" arrivalPos="1882.16" arrivalSpeed="29.54" duration="71.00" routeLength="1877.06" waitingTime="0.00" waitingCount="0" stopTime="0.00" timeLoss="8.61" rerouteNo="0" devices="tripinfo_189" vType="DEFAULT_VEHTYPE" speedFactor="1.09" vaporized=""/>
    <tripinfo id="66" depart="13.00" departLane="R64_0" departPos="5.10" departSpeed="0.00" departDelay="0.00" arrival="132.00" arrivalLane="R63_0" arrivalPos="1230.67" arrivalSpeed="23.87" duration="119.00" routeLength="2462.60" waitingTime="0.00" waitingCount="0" stopTime="0.00" timeLoss="14.99" rerouteNo="0" devices="tripinfo_66" vType="DEFAULT_VEHTYPE" speedFactor="1.08" vaporized=""/>
    <tripinfo id="152" depart="30.00" departLane="521511773_0" departPos="5.10" departSpeed="0.00" departDelay="0.00" arrival="144.00" arrivalLane="521511820_0" arrivalPos="258.02" arrivalSpeed="15.20" duration="114.00" routeLength="1513.99" waitingTime="0.00" waitingCount="0" stopTime="0.00" timeLoss="46.89" rerouteNo="0" devices="tripinfo_152" vType="DEFAULT_VEHTYPE" speedFactor="1.11" vaporized=""/>
    <tripinfo id="13" depart="2.00" departLane="R101_0" departPos="5.10" departSpeed="0.00" departDelay="0.00" arrival="154.00" arrivalLane="R38_1" arrivalPos="214.82" arrivalSpeed="28.30" duration="152.00" routeLength="1170.18" waitingTime="37.00" waitingCount="3" stopTime="0.00" timeLoss="75.83" rerouteNo="0" devices="tripinfo_13" vType="DEFAULT_VEHTYPE" speedFactor="1.03" vaporized=""/>
    <tripinfo id="28" depart="5.00" departLane="-521511772_0" departPos="10.10" departSpeed="0.00" departDelay="0.00" arrival="154.00" arrivalLane="-99621717#2_0" arrivalPos="141.12" arrivalSpeed="14.22" duration="149.00" routeLength="1091.90" waitingTime="30.00" waitingCount="1" stopTime="0.00" timeLoss="78.42" rerouteNo="0" devices="tripinfo_28" vType="fire" speedFactor="0.87" vaporized=""/>
    <tripinfo id="286" depart="57.00" departLane="-547667475#2_0" departPos="5.10" departSpeed="0.00" departDelay="0.00" arrival="158.00" arrivalLane="547665355_0" arrivalPos="290.62" arrivalSpeed="13.26" duration="101.00" routeLength="927.43" waitingTime="6.00" waitingCount="2" stopTime="0.00" timeLoss="31.13" rerouteNo="0" devices="tripinfo_286" vType="DEFAULT_VEHTYPE" speedFactor="0.98" vaporized=""/>
    <tripinfo id="18" depart="3.00" departLane="-171185157#1_0" departPos="5.10" departSpeed="0.00" departDelay="0.00" arrival="168.00" arrivalLane="547665357#1_0" arrivalPos="56.50" arrivalSpeed="10.27" duration="165.00" routeLength="2038.17" waitingTime="0.00" waitingCount="0" stopTime="0.00" timeLoss="50.26" rerouteNo="0" devices="tripinfo_18" vType="car" speedFactor="0.93" vaporized=""/>
    <tripinfo id="188" depart="37.00" departLane="-521707480#0_0" departPos="5.10" departSpeed="0.00" departDelay="0.00" arrival="169.00" arrivalLane="-99621794#0_0" arrivalPos="1870.90" arrivalSpeed="24.84" duration="132.00" routeLength="2895.02" waitingTime="0.00" waitingCount="0" stopTime="0.00" timeLoss="15.36" rerouteNo="0" devices="tripinfo_188" vType="DEFAULT_VEHTYPE" speedFactor="0.94" vaporized=""/>
    <tripinfo id="702" depart="143.00" departLane="-171185159#8_0" departPos="5.10" departSpeed="0.00" departDelay="3.00" arrival="171.00" arrivalLane="547665367_0" arrivalPos="68.79" arrivalSpeed="14.09" duration="28.00" routeLength="343.78" waitingTime="0.00" waitingCount="0" stopTime="0.00" timeLoss="10.62" rerouteNo="0" devices="tripinfo_702" vType="DEFAULT_VEHTYPE" speedFactor="1.08" vaporized=""/>
    <tripinfo id="194" depart="38.00" departLane="-547665379#1_0" departPos="5.10" departSpeed="0.00" departDelay="0.00" arrival="173.00" arrivalLane="547665373#0_0" arrivalPos="129.76" arrivalSpeed="12.23" duration="135.00" routeLength="1454.10" waitingTime="0.00" waitingCount="0" stopTime="0.00" timeLoss="18.27" rerouteNo="0" devices="tripinfo_194" vType="DEFAULT_VEHTYPE" speedFactor="0.92" vaporized=""/>
    <tripinfo id="680" depart="136.00" departLane="-521511789_0" departPos="5.10" departSpeed="0.00" departDelay="0.00" arrival="173.00" arrivalLane="-521511821#3_0" arrivalPos="26.13" arrivalSpeed="24.81" duration="37.00" routeLength="449.70" waitingTime="0.00" waitingCount="0" stopTime="0.00" timeLoss="9.97" rerouteNo="0" devices="tripinfo_680" vType="DEFAULT_VEHTYPE" speedFactor="0.92" vaporized=""/>
    <tripinfo id="325" depart="65.00" departLane="521511754_0" departPos="5.10" departSpeed="0.00" departDelay="0.00" arrival="178.00" arrivalLane="521511773_0" arrivalPos="522.86" arrivalSpeed="9.66" duration="113.00" routeLength="1545.84" waitingTime="0.00" waitingCount="0" stopTime="0.00" timeLoss="29.73" rerouteNo="0" devices="tripinfo_325" vType="DEFAULT_VEHTYPE" speedFactor="0.89" vaporized=""/>
    <tripinfo id="576" depart="115.00" departLane="-171185157#0_0" departPos="5.10" departSpeed="0.00" departDelay="0.00" arrival="178.00" arrivalLane="547665356#1_0" arrivalPos="114.50" arrivalSpeed="15.23" duration="63.00" routeLength="1000.55" waitingTime="0.00" waitingCount="0" stopTime="0.00" timeLoss="15.62" rerouteNo="0" devices="tripinfo_576" vType="DEFAULT_VEHTYPE" speedFactor="1.12" vaporized=""/>
    <tripinfo id="126" depart="25.00" departLane="R58_0" departPos="10.10" departSpeed="0.00" departDelay="0.00" arrival="183.00" arrivalLane="508777085#2_0" arrivalPos="50.77" arrivalSpeed="16.28" duration="158.00" routeLength="1469.72" waitingTime="29.00" waitingCount="2" stopTime="0.00" timeLoss="66.30" rerouteNo="0" devices="tripinfo_126" vType="fire" speedFactor="0.92" vaporized=""/>
    <tripinfo id="436" depart="87.00" departLane="-547746547_0" departPos="5.10" departSpeed="0.00" departDelay="0.00" arrival="186.00" arrivalLane="R11_0" arrivalPos="117.88" arrivalSpeed="7.92" duration="99.00" routeLength="582.30" waitingTime="34.00" waitingCount="1" stopTime="0.00" timeLoss="54.26" rerouteNo="0" devices="tripinfo_436" vType="DEFAULT_VEHTYPE" speedFactor="0.96" vaporized=""/>
    <tripinfo id="451" depart="90.00" departLane="-521539874#0_0" departPos="5.10" departSpeed="0.00" departDelay="0.00" arrival="186.00" arrivalLane="384145608#1_1" arrivalPos="323.43" arrivalSpeed="30.57" duration="96.00" routeLength="1794.16" waitingTime="0.00" waitingCount="0" stopTime="0.00" timeLoss="31.58" rerouteNo="0" devices="tripinfo_451" vType="DEFAULT_VEHTYPE" speedFactor="1.14" vaporized=""/>
    <tripinfo id="471" depart="94.00" departLane="R6_0" departPos="5.10" departSpeed="0.00" departDelay="0.00" arrival="187.00" arrivalLane="R6_0" arrivalPos="1882.12" arrivalSpeed="17.07" duration="93.00" routeLength="1877.02" waitingTime="0.00" waitingCount="0" stopTime="0.00" timeLoss="8.64" rerouteNo="0" devices="tripinfo_471" vType="DEFAULT_VEHTYPE" speedFactor="0.80" vaporized=""/>
    <tripinfo id="63" depart="14.00" departLane="99621794#1_0" departPos="5.10" departSpeed="0.00" departDelay="2.00" arrival="188.00" arrivalLane="R83_0" arrivalPos="201.79" arrivalSpeed="5.39" duration="174.00" routeLength="1063.07" waitingTime="65.00" waitingCount="2" stopTime="0.00" timeLoss="124.88" rerouteNo="0" devices="tripinfo_63" vType="car" speedFactor="1.14" vaporized=""/>
    <tripinfo id="30" depart="6.00" departLane="547665357#0_0" departPos="5.10" departSpeed="0.00" departDelay="0.00" arrival="190.00" arrivalLane="-547665371#1_0" arrivalPos="498.62" arrivalSpeed="13.09" duration="184.00" routeLength="1873.71" waitingTime="0.00" waitingCount="0" stopTime="0.00" timeLoss="41.43" rerouteNo="0" devices="tripinfo_30" vType="car" speedFactor="0.95" vaporized=""/>
    <tripinfo id="759" depart="157.00" departLane="521511821#8_0" departPos="5.10" departSpeed="0.00" departDelay="6.00" arrival="191.00" arrivalLane="-521511821#12_1" arrivalPos="140.39" arrivalSpeed="23.23" duration="34.00" routeLength="439.01" waitingTime="0.00" waitingCount="0" stopTime="0.00" timeLoss="16.46" rerouteNo="0" devices="tripinfo_759" vType="DEFAULT_VEHTYPE" speedFactor="1.02" vaporized=""/>
    <tripinfo id="256" depart="51.00" departLane="-521511746#1_0" departPos="5.10" departSpeed="0.00" departDelay="0.00" arrival="192.00" arrivalLane="-521511773_0" arrivalPos="529.11" arrivalSpeed="7.54" duration="141.00" routeLength="1777.55" waitingTime="7.00" waitingCount="1" stopTime="0.00" timeLoss="65.02" rerouteNo="0" devices="tripinfo_256" vType="DEFAULT_VEHTYPE" speedFactor="1.11" vaporized=""/>
    <tripinfo id="441" depart="88.00" departLane="-521511772_0" departPos="7.10" departSpeed="0.00" departDelay="0.00" arrival="192.00" arrivalLane="379711244#1_0" arrivalPos="621.95" arrivalSpeed="22.16" duration="104.00" routeLength="1117.12" waitingTime="0.00" waitingCount="0" stopTime="0.00" timeLoss="49.68" rerouteNo="0" devices="tripinfo_441" vType="police" speedFactor="0.99" vaporized=""/>
    <tripinfo id="199" depart="39.00" departLane="R45_0" departPos="10.10" departSpeed="0.00" departDelay="0.00" arrival="194.00" arrivalLane="-521511756#4_0" arrivalPos="31.44" arrivalSpeed="7.15" duration="155.00" routeLength="1398.37" waitingTime="19.00" waitingCount="1" stopTime="0.00" timeLoss="68.14" rerouteNo="0" devices="tripinfo_199" vType="bus" speedFactor="1.06" vaporized=""/>
    <tripinfo id="529" depart="105.00" departLane="384145608#1_0" departPos="5.10" departSpeed="0.00" departDelay="0.00" arrival="194.00" arrivalLane="-384145608#1_0" arrivalPos="327.27" arrivalSpeed="20.14" duration="89.00" routeLength="650.27" waitingTime="21.00" waitingCount="1" stopTime="0.00" timeLoss="58.29" rerouteNo="0" devices="tripinfo_529" vType="car" speedFactor="1.06" vaporized=""/>
    <tripinfo id="23" depart="4.00" departLane="R34_0" departPos="5.10" departSpeed="0.00" departDelay="0.00" arrival="195.00" arrivalLane="-521511740_0" arrivalPos="96.98" arrivalSpeed="12.93" duration="191.00" routeLength="2008.29" waitingTime="23.00" waitingCount="6" stopTime="0.00" timeLoss="92.49" rerouteNo="0" devices="tripinfo_23" vType="DEFAULT_VEHTYPE" speedFactor="1.02" vaporized=""/>
    <tripinfo id="231" depart="46.00" departLane="R39_0" departPos="2.10" departSpeed="0.00" departDelay="0.00" arrival="195.00" arrivalLane="R40_0" arrivalPos="822.08" arrivalSpeed="14.06" duration="149.00" routeLength="1646.36" waitingTime="0.00" waitingCount="0" stopTime="0.00" timeLoss="31.32" rerouteNo="0" devices="tripinfo_231" vType="motorcycle" speedFactor="1.02" vaporized=""/>
    <tripinfo id="221" depart="44.00" departLane="99621794#1_0" departPos="5.10" departSpeed="0.00" departDelay="0.00" arrival="207.00" arrivalLane="-521539874#0_0" arrivalPos="559.07" arrivalSpeed="7.91" duration="163.00" routeLength="2256.76" waitingTime="0.00" waitingCount="0" stopTime="0.00" timeLoss="71.53" rerouteNo="0" devices="tripinfo_221" vType="DEFAULT_VEHTYPE" speedFactor="1.03" vaporized=""/>
    <tripinfo id="310" depart="62.00" departLane="521511818#0_0" departPos="5.10" departSpeed="0.00" departDelay="0.00" arrival="208.00" arrivalLane="508777391#2_1" arrivalPos="114.86" arrivalSpeed="21.51" duration="146.00" routeLength="1017.09" waitingTime="24.00" waitingCount="2" stopTime="0.00" timeLoss="91.45" rerouteNo="0" devices="tripinfo_310" vType="car" speedFactor="0.85" vaporized=""/>
    <tripinfo id="107" depart="21.00" departLane="95658123#0_0" departPos="5.10" departSpeed="0.00" departDelay="0.00" arrival="212.00" arrivalLane="95658115_0" arrivalPos="1298.68" arrivalSpeed="15.39" duration="191.00" routeLength="2673.04" waitingTime="0.00" waitingCount="0" stopTime="0.00" timeLoss="18.67" rerouteNo="0" devices="tripinfo_107" vType="car" speedFactor="1.12" vaporized=""/>
    <tripinfo id="668" depart="133.00" departLane="521511802#1_0" departPos="5.10" departSpeed="0.00" departDelay="0.00" arrival="212.00" arrivalLane="521511741_0" arrivalPos="94.50" arrivalSpeed="13.66" duration="79.00" routeLength="1013.62" waitingTime="1.00" waitingCount="1" stopTime="0.00" timeLoss="31.12" rerouteNo="0" devices="tripinfo_668" vType="DEFAULT_VEHTYPE" speedFactor="1.06" vaporized=""/>
    <tripinfo id="110" depart="22.00" departLane="547746530#3_0" departPos="5.10" departSpeed="0.00" departDelay="0.00" arrival="214.00" arrivalLane="R6_0" arrivalPos="1882.12" arrivalSpeed="12.21" duration="192.00" routeLength="2991.49" waitingTime="7.00" waitingCount="1" stopTime="0.00" timeLoss="60.19" rerouteNo="0" devices="tripinfo_110" vType="DEFAULT_VEHTYPE" speedFactor="0.96" vaporized=""/>
    <tripinfo id="429" depart="85.00" departLane="R7_0" departPos="5.10" departSpeed="0.00" departDelay="0.00" arrival="214.00" arrivalLane="R8_1" arrivalPos="932.44" arrivalSpeed="5.19" duration="129.00" routeLength="1862.93" waitingTime="30.00" waitingCount="3" stopTime="0.00" timeLoss="67.16" rerouteNo="0" devices="tripinfo_429" vType="DEFAULT_VEHTYPE" speedFactor="1.10" vaporized=""/>
    <tripinfo id="625" depart="125.00" departLane="-547665357#1_0" departPos="5.10" departSpeed="0.00" departDelay="0.00" arrival="214.00" arrivalLane="-171185159#8_0" arrivalPos="146.09" arrivalSpeed="15.27" duration="89.00" routeLength="570.29" waitingTime="17.00" waitingCount="3" stopTime="0.00" timeLoss="45.45" rerouteNo="0" devices="tripinfo_625" vType="DEFAULT_VEHTYPE" speedFactor="0.90" vaporized=""/>
    <tripinfo id="62" depart="12.00" departLane="-521511723_0" departPos="2.10" departSpeed="0.00" departDelay="0.00" arrival="215.00" arrivalLane="R92_0" arrivalPos="269.72" arrivalSpeed="19.09" duration="203.00" routeLength="2084.47" waitingTime="11.00" waitingCount="2" stopTime="0.00" timeLoss="95.33" rerouteNo="0" devices="tripinfo_62" vType="motorcycle" speedFactor="0.90" vaporized=""/>
    <tripinfo id="139" depart="27.00" departLane="547746539#3_0" departPos="5.10" departSpeed="0.00" departDelay="0.00" arrival="215.00" arrivalLane="R14_0" arrivalPos="275.22" arrivalSpeed="3.00" duration="188.00" routeLength="572.29" waitingTime="88.00" waitingCount="3" stopTime="0.00" timeLoss="147.38" rerouteNo="0" devices="tripinfo_139" vType="car" speedFactor="0.82" vaporized=""/>
    <tripinfo id="918" depart="183.00" departLane="R9_0" departPos="5.10" departSpeed="0.00" departDelay="0.00" arrival="220.00" arrivalLane="R9_0" arrivalPos="615.04" arrivalSpeed="12.89" duration="37.00" routeLength="609.94" waitingTime="0.00" waitingCount="0" stopTime="0.00" timeLoss="11.54" rerouteNo="0" devices="tripinfo_918" vType="DEFAULT_VEHTYPE" speedFactor="0.87" vaporized=""/>
    <tripinfo id="289" depart="57.00" departLane="R48_0" departPos="2.10" departSpeed="0.00" departDelay="0.00" arrival="222.00" arrivalLane="R7_0" arrivalPos="930.91" arrivalSpeed="8.38" duration="165.00" routeLength="2079.06" waitingTime="3.00" waitingCount="1" stopTime="0.00" timeLoss="44.62" rerouteNo="0" devices="tripinfo_289" vType="motorcycle" speedFactor="0.96" vaporized=""/>
    <tripinfo id="481" depart="96.00" departLane="-547665363#1_0" departPos="5.10" departSpeed="0.00" departDelay="0.00" arrival="223.00" arrivalLane="171185159#9_0" arrivalPos="133.12" arrivalSpeed="13.61" duration="127.00" routeLength="710.81" waitingTime="26.00" waitingCount="2" stopTime="0.00" timeLoss="81.47" rerouteNo="0" devices="tripinfo_481" vType="car" speedFactor="1.01" vaporized=""/>
    <tripinfo id="494" depart="98.00" departLane="R86_0" departPos="5.10" departSpeed="0.00" departDelay="0.00" arrival="224.00" arrivalLane="R86_0" arrivalPos="876.30" arrivalSpeed="5.72" duration="126.00" routeLength="871.20" waitingTime="60.00" waitingCount="1" stopTime="0.00" timeLoss="89.11" rerouteNo="0" devices="tripinfo_494" vType="DEFAULT_VEHTYPE" speedFactor="1.06" vaporized=""/>
    <tripinfo id="11" depart="2.00" departLane="R6_0" departPos="5.10" departSpeed="0.00" departDelay="0.00" arrival="225.00" arrivalLane="R65_0" arrivalPos="333.63" arrivalSpeed="14.81" duration="223.00" routeLength="4290.37" waitingTime="11.00" waitingCount="1" stopTime="0.00" timeLoss="41.07" rerouteNo="0" devices="tripinfo_11" vType="DEFAULT_VEHTYPE" speedFactor="0.86" vaporized=""/>
    <tripinfo id="265" depart="53.00" departLane="99621794#1_0" departPos="5.10" departSpeed="0.00" departDelay="0.00" arrival="226.00" arrivalLane="521511735#1_0" arrivalPos="71.53" arrivalSpeed="12.11" duration="173.00" routeLength="2023.27" waitingTime="19.00" waitingCount="3" stopTime="0.00" timeLoss="81.25" rerouteNo="0" devices="tripinfo_265" vType="DEFAULT_VEHTYPE" speedFactor="0.96" vaporized=""/>
    <tripinfo id="273" depart="54.00" departLane="-521511736_0" departPos="11.10" departSpeed="0.00" departDelay="0.00" arrival="227.00" arrivalLane="-521511821#0_0" arrivalPos="947.99" arrivalSpeed="10.86" duration="173.00" routeLength="1628.27" waitingTime="4.00" waitingCount="1" stopTime="0.00" timeLoss="25.06" rerouteNo="0" devices="tripinfo_273" vType="truck" speedFactor="0.99" vaporized=""/>
    <tripinfo id="465" depart="93.00" departLane="384145608#1_0" departPos="5.10" departSpeed="0.00" departDelay="0.00" arrival="228.00" arrivalLane="99621717#2_1" arrivalPos="141.12" arrivalSpeed="23.62" duration="135.00" routeLength="1175.96" waitingTime="46.00" waitingCount="2" stopTime="0.00" timeLoss="83.55" rerouteNo="0" devices="tripinfo_465" vType="DEFAULT_VEHTYPE" speedFactor="0.86" vaporized=""/>
    <tripinfo id="225" depart="45.00" departLane="521511732_0" departPos="5.10" departSpeed="0.00" departDelay="0.00" arrival="229.00" arrivalLane="R7_0" arrivalPos="930.91" arrivalSpeed="14.90" duration="184.00" routeLength="2287.01" waitingTime="27.00" waitingCount="5" stopTime="0.00" timeLoss="75.68" rerouteNo="0" devices="tripinfo_225" vType="DEFAULT_VEHTYPE" speedFactor="0.83" vaporized=""/>
    <tripinfo id="219" depart="43.00" departLane="547665371#1_0" departPos="5.10" departSpeed="0.00" departDelay="0.00" arrival="235.00" arrivalLane="-451690842_0" arrivalPos="1943.71" arrivalSpeed="21.91" duration="192.00" routeLength="2857.69" waitingTime="0.00" waitingCount="0" stopTime="0.00" timeLoss="36.02" rerouteNo="0" devices="tripinfo_219" vType="car" speedFactor="1.00" vaporized=""/>
    <tripinfo id="112" depart="22.00" departLane="R5_0" departPos="5.10" departSpeed="0.00" departDelay="0.00" arrival="239.00" arrivalLane="R8_1" arrivalPos="932.44" arrivalSpeed="7.07" duration="217.00" routeLength="2822.50" waitingTime="48.00" waitingCount="1" stopTime="0.00" timeLoss="89.04" rerouteNo="0" devices="tripinfo_112" vType="car" speedFactor="0.95" vaporized=""/>
    <tripinfo id="755" depart="151.00" departLane="-521511798#1_0" departPos="5.10" departSpeed="0.00" departDelay="0.00" arrival="240.00" arrivalLane="-521511723_0" arrivalPos="482.52" arrivalSpeed="21.35" duration="89.00" routeLength="1070.12" waitingTime="0.00" waitingCount="0" stopTime="0.00" timeLoss="27.38" rerouteNo="0" devices="tripinfo_755" vType="DEFAULT_VEHTYPE" speedFactor="1.02" vaporized=""/>
    <tripinfo id="652" depart="136.00" departLane="-521511723_0" departPos="5.10" departSpeed="0.00" departDelay="6.00" arrival="243.00" arrivalLane="521511798#1_0" arrivalPos="78.95" arrivalSpeed="12.36" duration="107.00" routeLength="1337.05" waitingTime="0.00" waitingCount="0" stopTime="0.00" timeLoss="27.65" rerouteNo="0" devices="tripinfo_652" vType="DEFAULT_VEHTYPE" speedFactor="0.95" vaporized=""/>
    <tripinfo id="300" depart="68.00" departLane="R5_0" departPos="5.10" departSpeed="0.00" departDelay="8.00" arrival="247.00" arrivalLane="R8_1" arrivalPos="932.44" arrivalSpeed="16.59" duration="179.00" routeLength="2822.50" waitingTime="5.00" waitingCount="1" stopTime="0.00" timeLoss="50.37" rerouteNo="0" devices="tripinfo_300" vType="car" speedFactor="0.98" vaporized=""/>
    <tripinfo id="422" depart="84.00" departLane="R46_0" departPos="5.10" departSpeed="0.00" departDelay="0.00" arrival="250.00" arrivalLane="R47_0" arrivalPos="870.51" arrivalSpeed="4.81" duration="166.00" routeLength="1410.76" waitingTime="59.00" waitingCount="2" stopTime="0.00" timeLoss="83.59" rerouteNo="0" devices="tripinfo_422" vType="DEFAULT_VEHTYPE" speedFactor="1.02" vaporized=""/>
    <tripinfo id="431" depart="86.00" departLane="R48_0" departPos="10.10" departSpeed="0.00" departDelay="0.00" arrival="251.00" arrivalLane="R34_0" arrivalPos="257.52" arrivalSpeed="14.91" duration="165.00" routeLength="1387.13" waitingTime="23.00" waitingCount="4" stopTime="0.00" timeLoss="72.30" rerouteNo="0" devices="tripinfo_431" vType="bus" speedFactor="1.08" vaporized=""/>
    <tripinfo id="106" depart="21.00" departLane="R39_0" departPos="5.10" departSpeed="0.00" departDelay="0.00" arrival="252.00" arrivalLane="99621717#3_0" arrivalPos="168.50" arrivalSpeed="13.53" duration="231.00" routeLength="2121.84" waitingTime="54.00" waitingCount="4" stopTime="0.00" timeLoss="111.19" rerouteNo="0" devices="tripinfo_106" vType="DEFAULT_VEHTYPE" speedFactor="0.91" vaporized=""/>
    <tripinfo id="752" depart="150.00" departLane="R47_0" departPos="5.10" departSpeed="0.00" departDelay="0.00" arrival="252.00" arrivalLane="R47_0" arrivalPos="870.51" arrivalSpeed="6.82" duration="102.00" routeLength="865.41" waitingTime="31.00" waitingCount="1" stopTime="0.00" timeLoss="43.93" rerouteNo="0" devices="tripinfo_752" vType="DEFAULT_VEHTYPE" speedFactor="1.07" vaporized=""/>
    <tripinfo id="47" depart="9.00" departLane="-547746530#1_0" departPos="2.10" departSpeed="0.00" departDelay="0.00" arrival="254.00" arrivalLane="R13_0" arrivalPos="275.25" arrivalSpeed="3.27" duration="245.00" routeLength="839.52" waitingTime="140.00" waitingCount="3" stopTime="0.00" timeLoss="196.94" rerouteNo="0" devices="tripinfo_47" vType="motorcycle" speedFactor="0.96" vaporized=""/>
    <tripinfo id="238" depart="47.00" departLane="521511821#8_0" departPos="5.10" departSpeed="0.00" departDelay="0.00" arrival="256.00" arrivalLane="R29_0" arrivalPos="188.92" arrivalSpeed="14.98" duration="209.00" routeLength="1828.83" waitingTime="59.00" waitingCount="3" stopTime="0.00" timeLoss="132.00" rerouteNo="0" devices="tripinfo_238" vType="DEFAULT_VEHTYPE" speedFactor="1.10" vaporized=""/>
    <tripinfo id="328" depart="65.00" departLane="R66_0" departPos="5.10" departSpeed="0.00" departDelay="0.00" arrival="257.00" arrivalLane="547665375#0_0" arrivalPos="79.00" arrivalSpeed="12.69" duration="192.00" routeLength="1191.14" waitingTime="87.00" waitingCount="3" stopTime="0.00" timeLoss="141.60" rerouteNo="0" devices="tripinfo_328" vType="DEFAULT_VEHTYPE" speedFactor="0.97" vaporized=""/>
    <tripinfo id="115" depart="23.00" departLane="R68_0" departPos="2.10" departSpeed="0.00" departDelay="0.00" arrival="258.00" arrivalLane="-451690840#5_0" arrivalPos="363.72" arrivalSpeed="21.10" duration="235.00" routeLength="2207.78" waitingTime="51.00" waitingCount="2" stopTime="0.00" timeLoss="132.44" rerouteNo="0" devices="tripinfo_115" vType="motorcycle" speedFactor="1.07" vaporized=""/>
    <tripinfo id="913" depart="182.00" departLane="R47_0" departPos="5.10" departSpeed="0.00" departDelay="0.00" arrival="259.00" arrivalLane="R47_0" arrivalPos="870.51" arrivalSpeed="8.64" duration="77.00" routeLength="865.41" waitingTime="0.00" waitingCount="0" stopTime="0.00" timeLoss="13.10" rerouteNo="0" devices="tripinfo_913" vType="DEFAULT_VEHTYPE" speedFactor="0.98" vaporized=""/>
    <tripinfo id="985" depart="197.00" departLane="-521539874#0_0" departPos="5.10" departSpeed="0.00" departDelay="0.00" arrival="259.00" arrivalLane="521539874#0_0" arrivalPos="559.46" arrivalSpeed="22.59" duration="62.00" routeLength="1118.10" waitingTime="0.00" waitingCount="0" stopTime="0.00" timeLoss="12.83" rerouteNo="0" devices="tripinfo_985" vType="DEFAULT_VEHTYPE" speedFactor="1.07" vaporized=""/>
    <tripinfo id="548" depart="109.00" departLane="R58_0" departPos="5.10" departSpeed="0.00" departDelay="0.00" arrival="260.00" arrivalLane="-99621794#0_0" arrivalPos="1870.90" arrivalSpeed="27.58" duration="151.00" routeLength="2671.36" waitingTime="18.00" waitingCount="1" stopTime="0.00" timeLoss="52.17" rerouteNo="0" devices="tripinfo_548" vType="DEFAULT_VEHTYPE" speedFactor="0.99" vaporized=""/>
    <tripinfo id="33" depart="6.00" departLane="R90_0" departPos="5.10" departSpeed="0.00" departDelay="0.00" arrival="262.00" arrivalLane="171185159#9_0" arrivalPos="133.12" arrivalSpeed="19.13" duration="256.00" routeLength="1801.82" waitingTime="143.00" waitingCount="2" stopTime="0.00" timeLoss="181.01" rerouteNo="0" devices="tripinfo_33" vType="DEFAULT_VEHTYPE" speedFactor="1.18" vaporized=""/>
    <tripinfo id="166" depart="33.00" departLane="-99621717#0_0" departPos="5.10" departSpeed="0.00" departDelay="0.00" arrival="263.00" arrivalLane="R9_0" arrivalPos="615.04" arrivalSpeed="9.16" duration="230.00" routeLength="2477.58" waitingTime="27.00" waitingCount="2" stopTime="0.00" timeLoss="115.57" rerouteNo="0" devices="tripinfo_166" vType="car" speedFactor="1.07" vaporized=""/>